20
Step 0, 
6 1.420000 1.520000 1.580000
1 0.952899 0.984296 0.748600
1 2.171440 2.306013 1.187320
1 2.011723 0.820633 2.177613
1 0.643938 1.869059 2.206467
6 4.044662 1.484155 1.534595
1 3.577561 0.948451 0.703195
1 4.796102 2.270168 1.141915
1 4.636385 0.784788 2.132208
1 3.268600 1.833214 2.161062
6 6.955793 1.509860 1.452205
1 6.488692 0.974156 0.620805
1 7.707233 2.295873 1.059525
1 7.547516 0.810493 2.049818
1 6.179731 1.858919 2.078672
6 10.398318 1.349481 1.401173
1 9.931217 0.813777 0.569773
1 11.149758 2.135494 1.008493
1 10.990041 0.650114 1.998786
1 9.622256 1.698540 2.027640
20
Step 0, 
6 1.420000 1.520000 1.580000
1 0.952899 0.984296 0.748600
1 2.171440 2.306013 1.187320
1 2.011723 0.820633 2.177613
1 0.643938 1.869059 2.206467
6 4.044662 1.484155 1.534595
1 3.577561 0.948451 0.703195
1 4.796102 2.270168 1.141915
1 4.636385 0.784788 2.132208
1 3.268600 1.833214 2.161062
6 6.955793 1.509860 1.452205
1 6.488692 0.974156 0.620805
1 7.707233 2.295873 1.059525
1 7.547516 0.810493 2.049818
1 6.179731 1.858919 2.078672
6 10.398318 1.349481 1.401173
1 9.931217 0.813777 0.569773
1 11.149758 2.135494 1.008493
1 10.990041 0.650114 1.998786
1 9.622256 1.698540 2.027640
